
  ___ ___ ___ _ _ _  
 |   |   |_  | | | | 
 | | | | | . | | | | 
 |__ |  _|___|_____|  20.10.0
 |___|_|             

User:   pfsuo@cu04
Date:   Sun Jan 10 07:07:02 2021
Arch:   x86_64
Pid:    24214
Python: 3.8.6
gpaw:   /home/pfsuo/data0/anaconda3/lib/python3.8/site-packages/gpaw
_gpaw:  /home/pfsuo/data0/anaconda3/lib/python3.8/site-packages/
        _gpaw.cpython-38-x86_64-linux-gnu.so
ase:    /home/pfsuo/data0/anaconda3/lib/python3.8/site-packages/ase (version 3.20.1)
numpy:  /home/pfsuo/data0/anaconda3/lib/python3.8/site-packages/numpy (version 1.18.5)
scipy:  /home/pfsuo/data0/anaconda3/lib/python3.8/site-packages/scipy (version 1.5.4)
libxc:  4.3.4
units:  Angstrom and eV
cores: 16
OMP_NUM_THREADS: 1

Input parameters:
  kpts: {density: 11,
         gamma: True}
  mode: {ecut: 600.0,
         gammacentered: False,
         name: pw}
  occupations: {fixmagmom: False,
                name: fermi-dirac,
                width: 0.01}
  random: True

System changes: positions, numbers, cell, pbc, initial_charges, initial_magmoms 

Initialize ...

C-setup:
  name: Carbon
  id: d60576a1f549371a163e72552ca58787
  Z: 6.0
  valence: 4
  core: 2
  charge: 0.0
  file: /home/pfsuo/software/gpaw-setups-0.9.20000/C.LDA.gz
  compensation charges: gauss, rc=0.20, lmax=2
  cutoffs: 1.14(filt), 1.14(core),
  valence states:
                energy  radius
    2s(2.00)   -13.639   0.635
    2p(2.00)    -5.414   0.635
    *s          13.573   0.635
    *p          21.797   0.635
    *d           0.000   0.635

  Using partial waves for C as LCAO basis

Li-setup:
  name: Lithium
  id: b73562207f97a71b6967473b66fe8b65
  Z: 3.0
  valence: 1
  core: 2
  charge: 0.0
  file: /home/pfsuo/software/gpaw-setups-0.9.20000/Li.LDA.gz
  compensation charges: gauss, rc=0.33, lmax=2
  cutoffs: 1.91(filt), 2.55(core),
  valence states:
                energy  radius
    2s(1.00)    -2.874   1.058
    2p(0.00)    -1.126   1.058
    *s          24.338   1.058

  Using partial waves for Li as LCAO basis

Reference energy: -6312.424022

Spin-paired calculation

Convergence criteria:
  Maximum total energy change: 0.0005 eV / electron
  Maximum integral of absolute density change: 0.0001 electrons
  Maximum integral of absolute eigenstate change: 4e-08 eV^2
  Maximum number of iterations: 333

Symmetries present (total): 4

  ( 1  0  0)  ( 1  0  0)  ( 0  1  0)  ( 0  1  0)
  ( 0  1  0)  ( 0  1  0)  ( 1  0  0)  ( 1  0  0)
  ( 0  0  1)  ( 0  0 -1)  ( 0  0  1)  ( 0  0 -1)

6859 k-points: 19 x 19 x 19 Monkhorst-Pack grid
1000 k-points in the irreducible part of the Brillouin zone
       k-points in crystal coordinates                weights
   0:     0.00000000    0.00000000    0.00000000          1/6859
   1:     0.00000000    0.00000000    0.05263158          2/6859
   2:     0.00000000    0.00000000    0.10526316          2/6859
   3:     0.00000000    0.00000000    0.15789474          2/6859
   4:     0.00000000    0.00000000    0.21052632          2/6859
   5:     0.00000000    0.00000000    0.26315789          2/6859
   6:     0.00000000    0.00000000    0.31578947          2/6859
   7:     0.00000000    0.00000000    0.36842105          2/6859
   8:     0.00000000    0.00000000    0.42105263          2/6859
   9:     0.00000000    0.00000000    0.47368421          2/6859
          ...
 999:     0.47368421    0.47368421    0.47368421          4/6859

Wave functions: Plane wave expansion
  Cutoff energy: 600.000 eV
  Number of coefficients (min, max): 1934, 1995
  Pulay-stress correction: 0.000000 eV/Ang^3 (de/decut=0.000000)
  Using FFTW library
  ScaLapack parameters: grid=1x1, blocksize=None
  Wavefunction extrapolation:
    Improved wavefunction reuse through dual PAW basis 

  Fermi-Dirac: width=0.0100 eV

Eigensolver
   Davidson(niter=2, smin=None, normalize=True) 

Densities:
  Coarse grid: 25*25*21 grid
  Fine grid: 50*50*42 grid
  Total Charge: 0.000000 

Density mixing:
  Method: separate
  Backend: pulay
  Linear mixing parameter: 0.05
  Mixing with 5 old densities
  Damping of long wave oscillations: 50 

Hamiltonian:
  XC and Coulomb potentials evaluated on a 50*50*42 grid
  Using the LDA Exchange-Correlation functional
 

Memory estimate:
  Process memory now: 145.65 MiB
  Calculator: 64.34 MiB
    Density: 6.21 MiB
      Arrays: 2.60 MiB
      Localized functions: 2.60 MiB
      Mixer: 1.00 MiB
    Hamiltonian: 1.77 MiB
      Arrays: 1.70 MiB
      XC: 0.00 MiB
      Poisson: 0.00 MiB
      vbar: 0.06 MiB
    Wavefunctions: 56.36 MiB
      Arrays psit_nG: 35.86 MiB
      Eigensolver: 0.79 MiB
      Projections: 1.49 MiB
      Projectors: 15.84 MiB
      PW-descriptor: 2.39 MiB

Total number of cores used: 16
Parallelization over k-points: 16

Number of atoms: 7
Number of atomic orbitals: 28
Number of bands in calculation: 19
Number of valence electrons: 25
Bands to converge: occupied

... initialized

Initializing position-dependent things.

Density initialized from atomic densities
Creating initial wave functions:
  19 bands from LCAO basis set

                        
                        
                        
                        
           Li           
                        
        C   C C         
        C C   C         
                        
                        
                        
                        

Positions:
   0 C      0.000000    0.000000    0.000000    ( 0.0000,  0.0000,  0.0000)
   1 C      1.235500    0.713316    0.000000    ( 0.0000,  0.0000,  0.0000)
   2 C     -1.235500    2.139949    0.000000    ( 0.0000,  0.0000,  0.0000)
   3 C      0.000000    2.853265    0.000000    ( 0.0000,  0.0000,  0.0000)
   4 C      1.235500    2.139949    0.000000    ( 0.0000,  0.0000,  0.0000)
   5 C     -1.235500    0.713316    0.000000    ( 0.0000,  0.0000,  0.0000)
   6 Li     0.000000    1.426633    1.850000    ( 0.0000,  0.0000,  0.0000)

Unit cell:
           periodic     x           y           z      points  spacing
  1. axis:    yes    3.706500    2.139949    0.000000    25     0.1483
  2. axis:    yes   -3.706500    2.139949    0.000000    25     0.1483
  3. axis:    yes    0.000000    0.000000    3.700000    21     0.1762

  Lengths:   4.279898   4.279898   3.700000
  Angles:   90.000000  90.000000 120.000000

Effective grid spacing dv^(1/3) = 0.1648

                     log10-error:    total        iterations:
           time      wfs    density  energy       poisson
iter:   1  07:07:38                 -66.425357           
iter:   2  07:07:42  -1.31  -0.81   -65.972462           
iter:   3  07:07:45  -0.40  -0.83   -63.855329           
iter:   4  07:07:49  -1.27  -1.18   -63.184931           
iter:   5  07:07:52  -2.07  -1.34   -63.359680           
iter:   6  07:07:55  -1.86  -1.44   -63.150436           
iter:   7  07:07:59  -3.55  -2.53   -63.150666           
iter:   8  07:08:02  -3.63  -2.48   -63.154595           
iter:   9  07:08:05  -3.78  -2.27   -63.150441           
iter:  10  07:08:09  -5.66  -2.94   -63.150449           
iter:  11  07:08:12  -5.93  -2.96   -63.150386           
iter:  12  07:08:15  -5.47  -3.10   -63.150299           
iter:  13  07:08:18  -7.08  -3.60   -63.150299           
iter:  14  07:08:22  -6.52  -3.62   -63.150291           
iter:  15  07:08:25  -7.54  -4.02   -63.150290           

Converged after 15 iterations.

Dipole moment: (0.000000, -0.412830, -0.000000) |e|*Ang

Energy contributions relative to reference atoms: (reference = -6312.424022)

Kinetic:        +63.836040
Potential:      -60.534360
External:        +0.000000
XC:             -66.546544
Entropy (-ST):   -0.000439
Local:           +0.094793
--------------------------
Free energy:    -63.150509
Extrapolated:   -63.150290

Showing only first 2 kpts
 Kpt  Band  Eigenvalues  Occupancy
  0    10      6.08787    0.00029
  0    11      6.08789    0.00029
  0    12      6.44622    0.00029
  0    13      6.44623    0.00029

  1    10      6.04249    0.00058
  1    11      6.04250    0.00058
  1    12      6.41796    0.00058
  1    13      6.41798    0.00058


Fermi level: 7.48926

No gap

Forces in eV/Ang:
  0 C     0.00000   -0.08958    0.00000
  1 C     0.07753   -0.04480    0.00000
  2 C    -0.07759    0.04477    0.00000
  3 C     0.00000    0.08964    0.00000
  4 C     0.07759    0.04477    0.00000
  5 C    -0.07753   -0.04480    0.00000
  6 Li    0.00000   -0.00001    0.00000

System changes: positions 

Initializing position-dependent things.

Density initialized from wave functions
                        
                        
                        
                        
           Li           
                        
        C   C C         
        C C   C         
                        
                        
                        
                        

Positions:
   0 C      0.000000   -0.001280    0.000000    ( 0.0000,  0.0000,  0.0000)
   1 C      1.236608    0.712676    0.000000    ( 0.0000,  0.0000,  0.0000)
   2 C     -1.236608    2.140588    0.000000    ( 0.0000,  0.0000,  0.0000)
   3 C      0.000000    2.854546    0.000000    ( 0.0000,  0.0000,  0.0000)
   4 C      1.236608    2.140588    0.000000    ( 0.0000,  0.0000,  0.0000)
   5 C     -1.236608    0.712676    0.000000    ( 0.0000,  0.0000,  0.0000)
   6 Li     0.000000    1.426632    1.850000    ( 0.0000,  0.0000,  0.0000)

Unit cell:
           periodic     x           y           z      points  spacing
  1. axis:    yes    3.706500    2.139949    0.000000    25     0.1483
  2. axis:    yes   -3.706500    2.139949    0.000000    25     0.1483
  3. axis:    yes    0.000000    0.000000    3.700000    21     0.1762

  Lengths:   4.279898   4.279898   3.700000
  Angles:   90.000000  90.000000 120.000000

Effective grid spacing dv^(1/3) = 0.1648

                     log10-error:    total        iterations:
           time      wfs    density  energy       poisson
iter:   1  07:08:30  -4.01          -63.150815           
iter:   2  07:08:33  -5.63  -2.97   -63.150771           
iter:   3  07:08:36  -4.43  -3.00   -63.150583           
iter:   4  07:08:40  -5.97  -3.44   -63.150553           
iter:   5  07:08:43  -7.22  -4.11   -63.150554           
iter:   6  07:08:46  -6.76  -3.94   -63.150553           
iter:   7  07:08:50  -8.56  -4.78   -63.150553           

Converged after 7 iterations.

Dipole moment: (-0.000000, -0.337160, 0.000000) |e|*Ang

Energy contributions relative to reference atoms: (reference = -6312.424022)

Kinetic:        +63.828601
Potential:      -60.537992
External:        +0.000000
XC:             -66.541000
Entropy (-ST):   -0.000438
Local:           +0.100056
--------------------------
Free energy:    -63.150772
Extrapolated:   -63.150553

Showing only first 2 kpts
 Kpt  Band  Eigenvalues  Occupancy
  0    10      6.10595    0.00029
  0    11      6.10596    0.00029
  0    12      6.42889    0.00029
  0    13      6.42891    0.00029

  1    10      6.06044    0.00058
  1    11      6.06045    0.00058
  1    12      6.40070    0.00058
  1    13      6.40073    0.00058


Fermi level: 7.48732

No gap

Forces in eV/Ang:
  0 C     0.00000    0.02339    0.00000
  1 C    -0.02019    0.01175    0.00000
  2 C     0.02029   -0.01169    0.00000
  3 C     0.00000   -0.02351    0.00000
  4 C    -0.02029   -0.01169    0.00000
  5 C     0.02019    0.01175    0.00000
  6 Li    0.00000    0.00001    0.00000

System changes: positions 

Initializing position-dependent things.

Density initialized from wave functions
                        
                        
                        
                        
           Li           
                        
        C   C C         
        C C   C         
                        
                        
                        
                        

Positions:
   0 C      0.000000   -0.001015    0.000000    ( 0.0000,  0.0000,  0.0000)
   1 C      1.236379    0.712809    0.000000    ( 0.0000,  0.0000,  0.0000)
   2 C     -1.236379    2.140456    0.000000    ( 0.0000,  0.0000,  0.0000)
   3 C      0.000000    2.854279    0.000000    ( 0.0000,  0.0000,  0.0000)
   4 C      1.236379    2.140456    0.000000    ( 0.0000,  0.0000,  0.0000)
   5 C     -1.236379    0.712809    0.000000    ( 0.0000,  0.0000,  0.0000)
   6 Li     0.000000    1.426633    1.850000    ( 0.0000,  0.0000,  0.0000)

Unit cell:
           periodic     x           y           z      points  spacing
  1. axis:    yes    3.706500    2.139949    0.000000    25     0.1483
  2. axis:    yes   -3.706500    2.139949    0.000000    25     0.1483
  3. axis:    yes    0.000000    0.000000    3.700000    21     0.1762

  Lengths:   4.279898   4.279898   3.700000
  Angles:   90.000000  90.000000 120.000000

Effective grid spacing dv^(1/3) = 0.1648

                     log10-error:    total        iterations:
           time      wfs    density  energy       poisson
iter:   1  07:08:55  -5.35          -63.150585           
iter:   2  07:08:58  -6.98  -3.65   -63.150583           
iter:   3  07:09:01  -5.75  -3.67   -63.150575           
iter:   4  07:09:04  -7.27  -4.09   -63.150574           
iter:   5  07:09:08  -8.53  -4.79   -63.150574           

Converged after 5 iterations.

Dipole moment: (-0.000000, -0.352926, 0.000000) |e|*Ang

Energy contributions relative to reference atoms: (reference = -6312.424022)

Kinetic:        +63.824542
Potential:      -60.533875
External:        +0.000000
XC:             -66.540816
Entropy (-ST):   -0.000438
Local:           +0.099794
--------------------------
Free energy:    -63.150793
Extrapolated:   -63.150574

Showing only first 2 kpts
 Kpt  Band  Eigenvalues  Occupancy
  0    10      6.10201    0.00029
  0    11      6.10203    0.00029
  0    12      6.43238    0.00029
  0    13      6.43241    0.00029

  1    10      6.05653    0.00058
  1    11      6.05655    0.00058
  1    12      6.40418    0.00058
  1    13      6.40421    0.00058


Fermi level: 7.48759

No gap

Forces in eV/Ang:
  0 C     0.00000   -0.00332    0.00000
  1 C     0.00291   -0.00163    0.00000
  2 C    -0.00286    0.00166    0.00000
  3 C     0.00000    0.00326    0.00000
  4 C     0.00286    0.00166    0.00000
  5 C    -0.00291   -0.00163    0.00000
  6 Li    0.00000    0.00001    0.00000

Writing to gs.gpw (mode='all')

Timing:                                      incl.     excl.
-------------------------------------------------------------------
Density initialized from wave functions:     0.516     0.509   0.3% |
 Symmetrize density:                         0.007     0.007   0.0% |
Forces:                                      2.628     2.628   1.7% ||
Hamiltonian:                                 0.193     0.002   0.0% |
 Atomic:                                     0.044     0.044   0.0% |
  XC Correction:                             0.000     0.000   0.0% |
 Calculate atomic Hamiltonians:              0.054     0.054   0.0% |
 Communicate:                                0.000     0.000   0.0% |
 Initialize Hamiltonian:                     0.000     0.000   0.0% |
 Poisson:                                    0.002     0.002   0.0% |
 XC 3D grid:                                 0.090     0.090   0.1% |
LCAO initialization:                        29.149     0.065   0.0% |
 LCAO eigensolver:                           0.957     0.003   0.0% |
  Calculate projections:                     0.004     0.004   0.0% |
  DenseAtomicCorrection:                     0.014     0.014   0.0% |
  Distribute overlap matrix:                 0.002     0.002   0.0% |
  Orbital Layouts:                           0.027     0.027   0.0% |
  Potential matrix:                          0.749     0.749   0.5% |
  Sum over cells:                            0.158     0.158   0.1% |
 LCAO to grid:                              26.126    26.126  17.3% |------|
 Set positions (LCAO WFS):                   2.001     0.274   0.2% |
  Basic WFS set positions:                   0.001     0.001   0.0% |
  Basis functions set positions:             0.000     0.000   0.0% |
  P tci:                                     0.701     0.701   0.5% |
  ST tci:                                    0.920     0.920   0.6% |
  mktci:                                     0.105     0.105   0.1% |
PWDescriptor:                                0.235     0.235   0.2% |
Redistribute:                                0.031     0.031   0.0% |
SCF-cycle:                                  90.596     6.516   4.3% |-|
 Davidson:                                  76.033    17.043  11.3% |----|
  Apply H:                                  11.505    11.012   7.3% |--|
   HMM T:                                    0.493     0.493   0.3% |
  Subspace diag:                            14.139     0.151   0.1% |
   calc_h_matrix:                           12.485     0.927   0.6% |
    Apply H:                                11.559    11.020   7.3% |--|
     HMM T:                                  0.538     0.538   0.4% |
   diagonalize:                              0.458     0.458   0.3% |
   rotate_psi:                               1.045     1.045   0.7% |
  calc. matrices:                           28.961     5.813   3.8% |-|
   Apply H:                                 23.148    22.092  14.6% |-----|
    HMM T:                                   1.056     1.056   0.7% |
  diagonalize:                               2.494     2.494   1.6% ||
  rotate_psi:                                1.890     1.890   1.2% |
 Density:                                    5.914     0.000   0.0% |
  Atomic density matrices:                   0.250     0.250   0.2% |
  Mix:                                       0.570     0.570   0.4% |
  Multipole moments:                         0.005     0.005   0.0% |
  Pseudo density:                            5.089     5.000   3.3% ||
   Symmetrize density:                       0.090     0.090   0.1% |
 Hamiltonian:                                1.556     0.016   0.0% |
  Atomic:                                    0.338     0.338   0.2% |
   XC Correction:                            0.000     0.000   0.0% |
  Calculate atomic Hamiltonians:             0.470     0.470   0.3% |
  Communicate:                               0.002     0.002   0.0% |
  Poisson:                                   0.015     0.015   0.0% |
  XC 3D grid:                                0.716     0.716   0.5% |
 Orthonormalize:                             0.577     0.019   0.0% |
  calc_s_matrix:                             0.076     0.076   0.0% |
  inverse-cholesky:                          0.022     0.022   0.0% |
  projections:                               0.393     0.393   0.3% |
  rotate_psi_s:                              0.067     0.067   0.0% |
Set symmetry:                                0.206     0.206   0.1% |
Other:                                      27.819    27.819  18.4% |------|
-------------------------------------------------------------------
Total:                                               151.374 100.0%

Memory usage: 351.65 MiB
Date: Sun Jan 10 07:09:33 2021
